 *******************************************************************************
 **                                                                           **
 **                              MOPAC v23.2                                  **
 **                                                                           **
 *******************************************************************************
 **          Digital Object Identifier (DOI): 10.5281/zenodo.6511958          **
 **    Visit the DOI location for information on how to cite this program.    **
 *******************************************************************************

                              AM1 CALCULATION RESULTS

 *******************************************************************************
 *  CALCULATION DONE: (MAX THREADS = 16)             Fri Oct 10 08:38:41 2025  *
 *  AM1        - The AM1 Hamiltonian to be used
 *  NOOPT      - DO NOT OPTIMIZE ANY COORDINATES
 *
 *
 *
 *                 CHARGE ON SYSTEM = -3
 *
 *
 *
 *  T=         - A TIME OF 172800.0 SECONDS REQUESTED
 *  DUMP=N     - RESTART FILE WRITTEN EVERY 7200.0 SECONDS REQUESTED
 *  AUX        - OUTPUT AUXILIARY INFORMATION
 *******************************************************************************
AM1 AUX NOOPT CHARGE=-3
 Title: GDP charges
 Comment!
   ATOM   CHEMICAL          X               Y               Z
  NUMBER   SYMBOL      (ANGSTROMS)     (ANGSTROMS)     (ANGSTROMS)

     1       H         241.44999700     92.84040100     239.67260700   
     2       H         244.16630600     92.27449800     241.11790500   
     3       H         242.70159900     91.85739900     243.34370400   
     4       H         241.52639800     96.72290000     237.22619600   
     5       H         242.15060400     90.01059700     241.22680700   
     6       H         240.32159400     97.98400100     237.09050000   
     7       H         237.34030200     86.42099800     242.42649800   
     8       H         238.76019300     92.75219700     242.35220300   
     9       H         240.36940000     90.89720200     243.51750200   
    10       H         241.70219400     89.70890000     243.63349900   
    11       H         241.70289600     93.79209900     242.50129700   
    12       H         243.35249300     94.67289700     241.59779400   
    13       P         238.56799300     89.07000000     243.14300500   
    14       P         237.53999300     86.84100300     244.41299400   
    15       C         240.94200100     90.13999900     242.98199500   
    16       O         240.06399500     89.10299700     242.55799900   
    17       C         241.63099700     90.78500400     241.79100000   
    18       O         240.64599600     91.44899700     241.00100700   
    19       C         242.61799600     91.84200300     242.25700400   
    20       O         243.91700700     91.57299800     241.72399900   
    21       C         242.10499600     93.15699800     241.71200600   
    22       O         243.15800500     93.88500200     241.08500700   
    23       C         241.05600000     92.77800000     240.68699600   
    24       N         238.77600100     97.12599900     238.87899800   
    25       O         237.57400500     88.62699900     242.09800700   
    26       O         237.67500300     85.95800000     243.19799800   
    27       C         239.93100000     96.55000300     238.50700400   
    28       N         240.65400700     97.13500200     237.52499400   
    29       O         238.19299300     90.42600300     243.68200700   
    30       O         236.16099500     87.44300100     244.47900400   
    31       N         240.40300000     95.41200300     239.07099900   
    32       O         238.64199800     88.00199900     244.33599900   
    33       O         237.77499400     86.01499900     245.65100100   
    34       C         239.71800200     94.79200000     240.05400100   
    35       C         238.44900500     95.37300100     240.50199900   
    36       C         238.00199900     96.61399800     239.83900500   
    37       O         236.93200700     97.16300200     240.16900600   
    38       N         237.97799700     94.57299800     241.47300700   
    39       C         238.86900300     93.56400300     241.63299600   
    40       N         239.90400700     93.69799800     240.78700300   



          CARTESIAN COORDINATES 

    NO.       ATOM           X           Y           Z

     1         H        241.4500     92.8404    239.6726
     2         H        244.1663     92.2745    241.1179
     3         H        242.7016     91.8574    243.3437
     4         H        241.5264     96.7229    237.2262
     5         H        242.1506     90.0106    241.2268
     6         H        240.3216     97.9840    237.0905
     7         H        237.3403     86.4210    242.4265
     8         H        238.7602     92.7522    242.3522
     9         H        240.3694     90.8972    243.5175
    10         H        241.7022     89.7089    243.6335
    11         H        241.7029     93.7921    242.5013
    12         H        243.3525     94.6729    241.5978
    13         P        238.5680     89.0700    243.1430
    14         P        237.5400     86.8410    244.4130
    15         C        240.9420     90.1400    242.9820
    16         O        240.0640     89.1030    242.5580
    17         C        241.6310     90.7850    241.7910
    18         O        240.6460     91.4490    241.0010
    19         C        242.6180     91.8420    242.2570
    20         O        243.9170     91.5730    241.7240
    21         C        242.1050     93.1570    241.7120
    22         O        243.1580     93.8850    241.0850
    23         C        241.0560     92.7780    240.6870
    24         N        238.7760     97.1260    238.8790
    25         O        237.5740     88.6270    242.0980
    26         O        237.6750     85.9580    243.1980
    27         C        239.9310     96.5500    238.5070
    28         N        240.6540     97.1350    237.5250
    29         O        238.1930     90.4260    243.6820
    30         O        236.1610     87.4430    244.4790
    31         N        240.4030     95.4120    239.0710
    32         O        238.6420     88.0020    244.3360
    33         O        237.7750     86.0150    245.6510
    34         C        239.7180     94.7920    240.0540
    35         C        238.4490     95.3730    240.5020
    36         C        238.0020     96.6140    239.8390
    37         O        236.9320     97.1630    240.1690
    38         N        237.9780     94.5730    241.4730
    39         C        238.8690     93.5640    241.6330
    40         N        239.9040     93.6980    240.7870

  H: (AM1): M.J.S. DEWAR ET AL, J. AM. CHEM. SOC. 107 3902-3909 (1985)
  C: (AM1): M.J.S. DEWAR ET AL, J. AM. CHEM. SOC. 107 3902-3909 (1985)
  N: (AM1): M.J.S. DEWAR ET AL, J. AM. CHEM. SOC. 107 3902-3909 (1985)
  O: (AM1): M.J.S. DEWAR ET AL, J. AM. CHEM. SOC. 107 3902-3909 (1985)
  P: (AM1): M.J.S.DEWAR, JIE, C, THEOCHEM, 187, 1 (1989)

           Empirical Formula: C10 H12 N5 O11 P2  =    40 atoms



      MOLECULAR POINT GROUP   :   C1  


      RHF CALCULATION, NO. OF DOUBLY OCCUPIED LEVELS = 78


 -------------------------------------------------------------------------------
 AM1 AUX NOOPT CHARGE=-3
 Title: GDP charges
 Comment!


     NO PARAMETERS MARKED FOR OPTIMIZATION, SO 1SCF WAS USED  
     SCF FIELD WAS ACHIEVED                                   


                              AM1 CALCULATION
                                                       MOPAC v23.2 Linux
                                                       Fri Oct 10 08:38:42 2025




          FINAL HEAT OF FORMATION =       -431.40322 KCAL/MOL =   -1804.99105 KJ/MOL


          COSMO AREA              =        361.78 SQUARE ANGSTROMS
          COSMO VOLUME            =        590.96 CUBIC ANGSTROMS

          IONIZATION POTENTIAL    =         -0.025561 EV
          HOMO LUMO ENERGIES (EV) =          0.026  8.095
          NO. OF FILLED LEVELS    =         78
          MOLECULAR WEIGHT        =        440.1792         POINT GROUP:  C1  

          MOLECULAR DIMENSIONS (Angstroms)

            Atom       Atom       Distance
            O    33    H     6    14.93400
            O    37    H     2     8.16770
            H    12    H     7     5.18311


          SCF CALCULATIONS        =          1

          WALL-CLOCK TIME         =      0.568 SECONDS
          COMPUTATION TIME        =      0.255 SECONDS




   ATOM   CHEMICAL          X               Y               Z
  NUMBER   SYMBOL      (ANGSTROMS)     (ANGSTROMS)     (ANGSTROMS)

     1       H         241.44999700     92.84040100     239.67260700   
     2       H         244.16630600     92.27449800     241.11790500   
     3       H         242.70159900     91.85739900     243.34370400   
     4       H         241.52639800     96.72290000     237.22619600   
     5       H         242.15060400     90.01059700     241.22680700   
     6       H         240.32159400     97.98400100     237.09050000   
     7       H         237.34030200     86.42099800     242.42649800   
     8       H         238.76019300     92.75219700     242.35220300   
     9       H         240.36940000     90.89720200     243.51750200   
    10       H         241.70219400     89.70890000     243.63349900   
    11       H         241.70289600     93.79209900     242.50129700   
    12       H         243.35249300     94.67289700     241.59779400   
    13       P         238.56799300     89.07000000     243.14300500   
    14       P         237.53999300     86.84100300     244.41299400   
    15       C         240.94200100     90.13999900     242.98199500   
    16       O         240.06399500     89.10299700     242.55799900   
    17       C         241.63099700     90.78500400     241.79100000   
    18       O         240.64599600     91.44899700     241.00100700   
    19       C         242.61799600     91.84200300     242.25700400   
    20       O         243.91700700     91.57299800     241.72399900   
    21       C         242.10499600     93.15699800     241.71200600   
    22       O         243.15800500     93.88500200     241.08500700   
    23       C         241.05600000     92.77800000     240.68699600   
    24       N         238.77600100     97.12599900     238.87899800   
    25       O         237.57400500     88.62699900     242.09800700   
    26       O         237.67500300     85.95800000     243.19799800   
    27       C         239.93100000     96.55000300     238.50700400   
    28       N         240.65400700     97.13500200     237.52499400   
    29       O         238.19299300     90.42600300     243.68200700   
    30       O         236.16099500     87.44300100     244.47900400   
    31       N         240.40300000     95.41200300     239.07099900   
    32       O         238.64199800     88.00199900     244.33599900   
    33       O         237.77499400     86.01499900     245.65100100   
    34       C         239.71800200     94.79200000     240.05400100   
    35       C         238.44900500     95.37300100     240.50199900   
    36       C         238.00199900     96.61399800     239.83900500   
    37       O         236.93200700     97.16300200     240.16900600   
    38       N         237.97799700     94.57299800     241.47300700   
    39       C         238.86900300     93.56400300     241.63299600   
    40       N         239.90400700     93.69799800     240.78700300   

                             CARTESIAN COORDINATES

   1    H      241.449997000    92.840401000   239.672607000
   2    H      244.166306000    92.274498000   241.117905000
   3    H      242.701599000    91.857399000   243.343704000
   4    H      241.526398000    96.722900000   237.226196000
   5    H      242.150604000    90.010597000   241.226807000
   6    H      240.321594000    97.984001000   237.090500000
   7    H      237.340302000    86.420998000   242.426498000
   8    H      238.760193000    92.752197000   242.352203000
   9    H      240.369400000    90.897202000   243.517502000
  10    H      241.702194000    89.708900000   243.633499000
  11    H      241.702896000    93.792099000   242.501297000
  12    H      243.352493000    94.672897000   241.597794000
  13    P      238.567993000    89.070000000   243.143005000
  14    P      237.539993000    86.841003000   244.412994000
  15    C      240.942001000    90.139999000   242.981995000
  16    O      240.063995000    89.102997000   242.557999000
  17    C      241.630997000    90.785004000   241.791000000
  18    O      240.645996000    91.448997000   241.001007000
  19    C      242.617996000    91.842003000   242.257004000
  20    O      243.917007000    91.572998000   241.723999000
  21    C      242.104996000    93.156998000   241.712006000
  22    O      243.158005000    93.885002000   241.085007000
  23    C      241.056000000    92.778000000   240.686996000
  24    N      238.776001000    97.125999000   238.878998000
  25    O      237.574005000    88.626999000   242.098007000
  26    O      237.675003000    85.958000000   243.197998000
  27    C      239.931000000    96.550003000   238.507004000
  28    N      240.654007000    97.135002000   237.524994000
  29    O      238.192993000    90.426003000   243.682007000
  30    O      236.160995000    87.443001000   244.479004000
  31    N      240.403000000    95.412003000   239.070999000
  32    O      238.641998000    88.001999000   244.335999000
  33    O      237.774994000    86.014999000   245.651001000
  34    C      239.718002000    94.792000000   240.054001000
  35    C      238.449005000    95.373001000   240.501999000
  36    C      238.001999000    96.613998000   239.839005000
  37    O      236.932007000    97.163002000   240.169006000
  38    N      237.977997000    94.572998000   241.473007000
  39    C      238.869003000    93.564003000   241.632996000
  40    N      239.904007000    93.697998000   240.787003000


           Empirical Formula: C10 H12 N5 O11 P2  =    40 atoms



      MOLECULAR POINT GROUP   :   C1  


                  EIGENVALUES  
 -36.00616 -34.42805 -32.18637 -31.78070 -30.98580 -29.66805 -29.50600 -28.61960
 -26.92586 -26.81957 -26.66496 -25.40595 -24.50338 -23.64531 -23.25978 -22.99346
 -22.96305 -22.26454 -20.41585 -19.28806 -17.09142 -16.50743 -15.93308 -15.63349
 -13.83391 -13.47316 -12.80942 -12.11115 -11.57887 -11.29704 -10.94057 -10.71178
 -10.36242 -10.21686  -9.67551  -9.45591  -9.10270  -8.86857  -8.69875  -8.29129
  -8.07083  -8.02437  -7.84613  -7.64341  -7.48109  -7.09094  -6.91703  -6.69946
  -6.47614  -6.37066  -5.94028  -5.83592  -5.77965  -5.41428  -5.18549  -4.94491
  -4.70611  -4.64723  -4.11939  -3.86325  -3.65754  -3.54945  -3.20900  -3.07511
  -2.85884  -2.56144  -2.54975  -1.83259  -1.60478  -1.38867  -1.27791  -0.96905
  -0.84285  -0.73460  -0.56988  -0.26721  -0.07933   0.02556   8.09464   8.22942
   8.76866   9.00024   9.11140   9.16099   9.25854   9.36574   9.75242   9.93565
   9.97149  10.08151  10.17861  10.69739  10.73248  10.95310  11.08175  11.18455
  11.41966  11.43054  11.47285  11.53162  11.78389  11.95241  12.06117  12.14278
  12.27676  12.29995  12.51476  12.62094  13.05852  13.08395  13.38055  13.71900
  13.86973  13.96834  14.53994  14.92461  15.25221  15.59978  15.73400  16.32664
  16.92277  17.04569  17.28972  17.76118


              NET ATOMIC CHARGES AND DIPOLE CONTRIBUTIONS

  ATOM NO.   TYPE          CHARGE      No. of ELECS.   s-Pop       p-Pop       
    1          H           0.129887        0.8701     0.87011
    2          H           0.215342        0.7847     0.78466
    3          H           0.105379        0.8946     0.89462
    4          H           0.207198        0.7928     0.79280
    5          H           0.109166        0.8908     0.89083
    6          H           0.213227        0.7868     0.78677
    7          H           0.265650        0.7343     0.73435
    8          H           0.246964        0.7530     0.75304
    9          H           0.113677        0.8863     0.88632
   10          H           0.048352        0.9516     0.95165
   11          H           0.112293        0.8877     0.88771
   12          H           0.206623        0.7934     0.79338
   13          P           2.516393        2.4836     0.90840     1.57521
   14          P           2.549212        2.4508     0.88571     1.56508
   15          C           0.037644        3.9624     1.21373     2.74862
   16          O          -0.735286        6.7353     1.88637     4.84891
   17          C           0.003220        3.9968     1.23026     2.76652
   18          O          -0.223322        6.2233     1.88431     4.33901
   19          C          -0.015579        4.0156     1.22828     2.78730
   20          O          -0.362420        6.3624     1.86892     4.49350
   21          C          -0.046631        4.0466     1.23425     2.81238
   22          O          -0.339627        6.3396     1.86496     4.47467
   23          C           0.167491        3.8325     1.22035     2.61216
   24          N          -0.475170        5.4752     1.69050     3.78467
   25          O          -1.160808        7.1608     1.95322     5.20759
   26          O          -0.823964        6.8240     1.86784     4.95612
   27          C           0.243413        3.7566     1.18937     2.56722
   28          N          -0.413730        5.4137     1.42576     3.98797
   29          O          -1.161193        7.1612     1.95220     5.20899
   30          O          -1.191663        7.1917     1.95284     5.23883
   31          N          -0.425978        5.4260     1.68360     3.74238
   32          O          -1.165490        7.1655     1.90670     5.25879
   33          O          -1.201450        7.2014     1.95117     5.25028
   34          C           0.021638        3.9784     1.19489     2.78347
   35          C          -0.289053        4.2891     1.24684     3.04221
   36          C           0.369699        3.6303     1.17861     2.45169
   37          O          -0.469436        6.4694     1.91301     4.55642
   38          N          -0.104846        5.1048     1.72275     3.38210
   39          C          -0.150383        4.1504     1.26973     2.88066
   40          N          -0.126442        5.1264     1.43322     3.69322
 DIPOLE           X         Y         Z       TOTAL
 POINT-CHG.    24.766    10.994    -9.931    28.859
 HYBRID         2.063     0.669    -0.664     2.268
 SUM           26.829    11.663   -10.595    31.114


          ATOMIC ORBITAL ELECTRON POPULATIONS

     Atom    s        px        py        pz   
    1  H   0.87011
    2  H   0.78466
    3  H   0.89462
    4  H   0.79280
    5  H   0.89083
    6  H   0.78677
    7  H   0.73435
    8  H   0.75304
    9  H   0.88632
   10  H   0.95165
   11  H   0.88771
   12  H   0.79338
   13  P   0.90840   0.49161   0.55945   0.52414
   14  P   0.88571   0.53222   0.51060   0.52225
   15  C   1.21373   0.92885   0.91058   0.90920
   16  O   1.88637   1.50212   1.53834   1.80845
   17  C   1.23026   0.88004   0.93013   0.95635
   18  O   1.88431   1.42167   1.21084   1.70650
   19  C   1.22828   0.85363   0.94630   0.98738
   20  O   1.86892   1.33014   1.51144   1.65192
   21  C   1.23425   0.89377   0.94089   0.97772
   22  O   1.86496   1.55430   1.39096   1.52941
   23  C   1.22035   0.83193   0.80461   0.97562
   24  N   1.69050   1.09654   1.39781   1.29032
   25  O   1.95322   1.63401   1.89487   1.67870
   26  O   1.86784   1.88637   1.67252   1.39722
   27  C   1.18937   0.86175   0.85402   0.85145
   28  N   1.42576   1.25699   1.30226   1.42872
   29  O   1.95220   1.85670   1.48570   1.86659
   30  O   1.95284   1.46475   1.85035   1.92373
   31  N   1.68360   1.38209   1.14836   1.21193
   32  O   1.90670   1.81434   1.68047   1.76398
   33  O   1.95117   1.92853   1.77311   1.54864
   34  C   1.19489   0.94912   0.89139   0.94297
   35  C   1.24684   0.95868   1.03707   1.04646
   36  C   1.17861   0.85107   0.80591   0.79470
   37  O   1.91301   1.23081   1.65113   1.67448
   38  N   1.72275   1.22313   1.01334   1.14563
   39  C   1.26973   0.85250   1.03147   0.99669
   40  N   1.43322   1.19258   1.18669   1.31395

 **********************
 *                    *
 * JOB ENDED NORMALLY *
 *                    *
 **********************



 TOTAL JOB TIME:             0.72 SECONDS

 == MOPAC DONE ==
